36
 energy: -59.798020736400 gnorm: 0.051418436246 xtb: 6.4.1 (afa7bdf)
 C       -2.31000000000000   -4.29500000000000   -0.63500000000000
 C       -1.33100000000000   -3.65300000000000    0.32500000000000
 O       -1.27300000000000   -3.97400000000000    1.49800000000000
 H       -2.32000000000000   -3.82700000000000   -1.61900000000000
 H       -2.04800000000000   -5.34900000000000   -0.74000000000000
 H       -3.30600000000000   -4.24600000000000   -0.19400000000000
 N       -0.52200000000000   -2.70700000000000   -0.20900000000000
 C        0.46900000000000   -2.02600000000000    0.58600000000000
 C        1.41600000000000   -1.32600000000000   -0.38900000000000
 O        1.13500000000000   -1.18300000000000   -1.56300000000000
 C        1.22800000000000   -3.01800000000000    1.50700000000000
 N        3.35600000000000   -5.26100000000000   -0.51800000000000
 C        0.07500000000000   -5.99700000000000    0.66400000000000
 C        1.88500000000000   -4.12200000000000    0.74500000000000
 C        1.30400000000000   -5.38500000000000    0.38100000000000
 C        2.25200000000000   -6.07400000000000   -0.41000000000000
 C        3.12900000000000   -4.09600000000000    0.17400000000000
 C        0.77500000000000   -7.92300000000000   -0.66200000000000
 C       -0.15600000000000   -7.23900000000000    0.12600000000000
 C        2.00000000000000   -7.34300000000000   -0.93500000000000
 F       -1.34300000000000   -7.83700000000000    0.36200000000000
 H       -0.56400000000000   -2.43800000000000   -1.18200000000000
 H       -0.00900000000000   -1.27100000000000    1.21900000000000
 H        0.51400000000000   -8.90000000000000   -1.04500000000000
 H        1.96300000000000   -2.42400000000000    2.05400000000000
 H        0.53300000000000   -3.43200000000000    2.24400000000000
 H        3.87800000000000   -3.32100000000000    0.21700000000000
 H        2.73400000000000   -7.86000000000000   -1.54100000000000
 H        4.20300000000000   -5.49000000000000   -1.01000000000000
 H       -0.68200000000000   -5.52300000000000    1.27600000000000
 C        3.51500000000000   -0.09400000000000   -0.63200000000000
 N        2.56800000000000   -0.86500000000000    0.15500000000000
 H        2.74100000000000   -1.02100000000000    1.13400000000000
 H        4.50600000000000   -0.17900000000000   -0.18800000000000
 H        3.53500000000000   -0.49600000000000   -1.64400000000000
 H        3.22800000000000    0.96000000000000   -0.68500000000000
36
 energy: -59.810270936519 gnorm: 0.023726751228 xtb: 6.4.1 (afa7bdf)
 C       -2.33033610674583   -4.26961007882928   -0.65216789466705
 C       -1.41284027922946   -3.57999115726420    0.32835318080192
 O       -1.42128217499516   -3.87639829192421    1.51133800116248
 H       -2.31168401516990   -3.81627390796635   -1.63781147762941
 H       -2.04809250348125   -5.32059095860100   -0.72943074511344
 H       -3.33550459288724   -4.23398073411592   -0.23699819905485
 N       -0.53974885761472   -2.69195582601128   -0.19504857776324
 C        0.48289518375634   -2.04210057208207    0.59401231862262
 C        1.41818710143197   -1.32774809945145   -0.38884660199149
 O        1.13101039591441   -1.19603300413314   -1.56201987294753
 C        1.24814081264647   -3.02751245239501    1.51576897529341
 N        3.35713361966517   -5.26791019874606   -0.52289201225069
 C        0.11059860151186   -6.04173764369617    0.70572274279616
 C        1.88689155047066   -4.13258750665665    0.73960784630428
 C        1.31429632817301   -5.40268766556251    0.39331268431980
 C        2.25916475645091   -6.07848933528458   -0.41341722053402
 C        3.12637373951272   -4.10718510082900    0.16601944616884
 C        0.79293769535635   -7.93027903298176   -0.67305439520772
 C       -0.12807420944300   -7.26580493520860    0.13670291577482
 C        2.01107505045621   -7.34337811511101   -0.94070346696749
 F       -1.32318401524984   -7.86200947824757    0.36161414098191
 H       -0.54447356976960   -2.44249713112510   -1.17579216749541
 H        0.01204576780440   -1.27317300158797    1.22422273592632
 H        0.53411384141212   -8.90257285067968   -1.06271645801386
 H        1.99366158332736   -2.46221890288505    2.07939632012863
 H        0.53756334434930   -3.44058413798074    2.23182050771464
 H        3.87458986899236   -3.33646537754069    0.20778358305218
 H        2.74498113508396   -7.85333780753425   -1.54664496190858
 H        4.20338030381984   -5.49344501547198   -1.01636911441119
 H       -0.64101070907053   -5.56974836367552    1.32521821428890
 C        3.51352913362493   -0.09374082538114   -0.63912673559876
 N        2.56275218985100   -0.85124072234955    0.14441447735249
 H        2.74036770703848   -0.98592019259430    1.12499853932604
 H        4.50251865581185   -0.17906155396008   -0.19265673416230
 H        3.52821392631133   -0.49628609876557   -1.65085469682634
 H        3.22780874088353    0.95955607662949   -0.68775529747207
36
 energy: -59.814980474055 gnorm: 0.019228739227 xtb: 6.4.1 (afa7bdf)
 C       -2.34972408231570   -4.23235148779547   -0.66772401683092
 C       -1.44550603390879   -3.55410461528455    0.33126890290400
 O       -1.53242286262504   -3.80013532042436    1.52964426093902
 H       -2.30260785932939   -3.78782781669312   -1.65582614748153
 H       -2.05830448623740   -5.28020119369971   -0.72971331118576
 H       -3.36785655396270   -4.20442100886211   -0.28373228707114
 N       -0.53489251710381   -2.69828257556880   -0.17664926430821
 C        0.49568813323089   -2.05330928679641    0.60851360923912
 C        1.41899849175275   -1.33557704755946   -0.38786351150532
 O        1.12804163793611   -1.22548536765403   -1.56299685901457
 C        1.24944528456781   -3.04947936841071    1.52289580321195
 N        3.36024510354175   -5.27353513141178   -0.52957033518520
 C        0.12498317611680   -6.05436559109356    0.72111748778162
 C        1.89357609454468   -4.14714027951388    0.74246773276244
 C        1.32210776529941   -5.41329281973810    0.40076863009551
 C        2.26905196034890   -6.08419696189658   -0.41138093725597
 C        3.12783041017117   -4.11657914668046    0.15965503663624
 C        0.80948963166354   -7.93525281383427   -0.67276422618507
 C       -0.10893063444729   -7.27817466443416    0.14635463134046
 C        2.02233266732178   -7.34388976206862   -0.94418086139460
 F       -1.29842725389771   -7.88831704755476    0.38144905406346
 H       -0.50100826623684   -2.47158480109747   -1.16568510685581
 H        0.03118189456739   -1.27842313029935    1.24237077596279
 H        0.55153820565597   -8.90278136194450   -1.07229743745886
 H        1.99837635387947   -2.50811087288091    2.10510277819249
 H        0.52104867502750   -3.46811010239943    2.21674739303807
 H        3.87183823515142   -3.34387617156506    0.19073228258326
 H        2.75424160927133   -7.84528426146056   -1.55795073993568
 H        4.20230897493696   -5.49363205783922   -1.03241992012321
 H       -0.60745263174445   -5.59658060616264    1.36981932711612
 C        3.50706151542461   -0.09025398785838   -0.64859210933692
 N        2.55226553261528   -0.83483087028075    0.13708540443049
 H        2.72978020624962   -0.93668536529125    1.12244219223450
 H        4.49585510996007   -0.18062216331218   -0.20393522146127
 H        3.51634874690779   -0.49397708600784   -1.66000489169519
 H        3.23149776566613    0.96567214537449   -0.69914811824632
36
 energy: -59.817741158620 gnorm: 0.014581724131 xtb: 6.4.1 (afa7bdf)
 C       -2.36859888162417   -4.18985705772049   -0.68048418981560
 C       -1.49486627465363   -3.50645546970101    0.34547583845790
 O       -1.62505893907895   -3.71836718273810    1.54280308958522
 H       -2.29400295288395   -3.74309783561182   -1.66667666356785
 H       -2.06118727040948   -5.23336595049632   -0.73857159191454
 H       -3.40050762825382   -4.17477916295343   -0.33273828371080
 N       -0.53461178251301   -2.70226055005824   -0.15701427328462
 C        0.50543508311957   -2.06510072092367    0.62123849485915
 C        1.42312527524761   -1.35556029313583   -0.38650321974844
 O        1.13696624591280   -1.27911248274627   -1.56652836877282
 C        1.24823716578001   -3.07111089534036    1.52818289676314
 N        3.36494311091919   -5.27679686461444   -0.53942167798629
 C        0.13925248080573   -6.06732615433929    0.73402526317331
 C        1.90180731283123   -4.15976389361916    0.74280934489454
 C        1.33407366268037   -5.42616204664503    0.40764244325691
 C        2.28039149633394   -6.09150437791874   -0.41305683463188
 C        3.13132004052367   -4.12071649717243    0.14963400938234
 C        0.82607913302872   -7.94402446251810   -0.67061961220772
 C       -0.08734299354057   -7.29522185439729    0.16195742649444
 C        2.03453842960934   -7.34791062030385   -0.95134982132390
 F       -1.26725312951638   -7.92194054131762    0.41057461929120
 H       -0.46108600248726   -2.50738376672016   -1.15391148210960
 H        0.05299512681030   -1.28669457738310    1.26119533825348
 H        0.56891660024751   -8.90887963441512   -1.07627204787120
 H        1.99358109105192   -2.54441429667267    2.12838395256394
 H        0.50340037404188   -3.49817577501502    2.20063414631870
 H        3.87138106394565   -3.34404650628919    0.17138134801013
 H        2.76535417193842   -7.84196949293485   -1.57285082643843
 H        4.20216748859581   -5.49089728219120   -1.05315896584786
 H       -0.58128272392608   -5.62089623569051    1.39926184732973
 C        3.49816461694590   -0.08800790258236   -0.65465394064452
 N        2.53972422727755   -0.82218818133891    0.13688506638007
 H        2.70753973887299   -0.88312195749687    1.12956453566261
 H        4.48922240148181   -0.18768391315255   -0.21693818261219
 H        3.49832816552733   -0.49248458306875   -1.66616756010835
 H        3.23685407535811    0.97227901922282   -0.70873211808020
36
 energy: -59.819474551854 gnorm: 0.013559071034 xtb: 6.4.1 (afa7bdf)
 C       -2.38909237941282   -4.14242075260974   -0.69055863496098
 C       -1.53074792063185   -3.46780069545151    0.35461895539737
 O       -1.70441085577772   -3.63377720328106    1.55170023100075
 H       -2.28944541534018   -3.68484476798600   -1.67025418079764
 H       -2.07532036579997   -5.18341744970118   -0.75163668421177
 H       -3.42891237408632   -4.13074885950588   -0.37180953849989
 N       -0.52992991816343   -2.71249082334636   -0.14538153752839
 C        0.50958547835041   -2.07654522409097    0.63070125927898
 C        1.42849001925784   -1.37841603170244   -0.38214076112780
 O        1.16239962565236   -1.35100413605158   -1.57073811583132
 C        1.24789381056487   -3.08954386363532    1.53266612118337
 N        3.36900122188122   -5.27603368434831   -0.55346925083197
 C        0.15519121386067   -6.08206808464021    0.74452580370905
 C        1.90984824510890   -4.16854725685717    0.73988171472776
 C        1.34803020902820   -5.43892362850882    0.41077709054051
 C        2.29145512956861   -6.09881068553146   -0.41832929713848
 C        3.13422942351490   -4.11957300453203    0.13599569326438
 C        0.84388212785627   -7.95677218635271   -0.66451321918815
 C       -0.06418836614736   -7.31519230193177    0.17973747351194
 C        2.04725794760741   -7.35513997848423   -0.95815441363005
 F       -1.23280310799227   -7.95693726981578    0.44295827388666
 H       -0.42411259626040   -2.55233196378222   -1.14577592483871
 H        0.06595828739563   -1.29909840105804    1.27606209653729
 H        0.58780321103371   -8.92180944665630   -1.07028134656732
 H        1.98361811949935   -2.56971858584825    2.15010030035194
 H        0.49431162239351   -3.52822545488323    2.18802451623710
 H        3.87011693881067   -3.33838749927029    0.15070810327017
 H        2.77486668619876   -7.84214547334755   -1.58966574341390
 H        4.20119513610870   -5.48366562484061   -1.07834353621865
 H       -0.56266516961531   -5.64209341202023    1.41429129601305
 C        3.48800510297121   -0.08737231742825   -0.65632831793031
 N        2.52542597397919   -0.80816024171202    0.14447961930588
 H        2.67470494875582   -0.82498669041572    1.14355444572149
 H        4.48316068961948   -0.20167525104347   -0.22994477438350
 H        3.47080690430457   -0.49358313536711   -1.66749240624823
 H        3.24239039590539    0.97726138603786   -0.70996531059062
36
 energy: -59.820698967386 gnorm: 0.010059015725 xtb: 6.4.1 (afa7bdf)
 C       -2.41255568968562   -4.09348128285992   -0.69725139932494
 C       -1.56459139212729   -3.42527523087856    0.36128594943628
 O       -1.76981513588572   -3.54527455324222    1.55445504764389
 H       -2.29682874755883   -3.62119692342292   -1.66784079988018
 H       -2.09605645992264   -5.13290484776039   -0.76904841213766
 H       -3.45570266730148   -4.08318918692512   -0.39767864415959
 N       -0.52536416493584   -2.72276537137773   -0.13998819176640
 C        0.51160807706939   -2.08829965950049    0.63603044724658
 C        1.44017146531299   -1.40722775301059   -0.37718418866574
 O        1.20439921614400   -1.42860518434793   -1.57297721018519
 C        1.24728915270937   -3.10759751240845    1.53582368271267
 N        3.37193888914814   -5.27263827166516   -0.57081493524178
 C        0.17143056582233   -6.09733299359325    0.74938598747127
 C        1.91662880946676   -4.17642757849275    0.73565539536107
 C        1.36139935904222   -5.45088322593743    0.40926173308275
 C        2.30195697851598   -6.10534361284436   -0.42605688121882
 C        3.13512596068432   -4.11685143075175    0.12062695597591
 C        0.86553880002744   -7.97388060141291   -0.65369067303425
 C       -0.04002648189662   -7.33706848333497    0.19631862701718
 C        2.06143620816320   -7.36420354178784   -0.96300612591598
 F       -1.19628192061235   -7.99195190403156    0.47577227273261
 H       -0.39209386864140   -2.60212187745001   -1.14147229563119
 H        0.07360947187017   -1.31313455565774    1.28476912465857
 H        0.61269420043280   -8.94260023836067   -1.05304396310899
 H        1.97336314121201   -2.59000375422583    2.16544654943971
 H        0.49045275058384   -3.55601449694549    2.17992415715625
 H        3.86545623660831   -3.33021308608470    0.12857604390395
 H        2.78484398886921   -7.84508846917486   -1.60406077092664
 H        4.19896094947004   -5.47279504390468   -1.10697944442624
 H       -0.54965256140021   -5.66061234671349    1.41741720334897
 C        3.47752769968532   -0.08626894361424   -0.65299061362506
 N        2.51193425711275   -0.79420347730398    0.15650865587071
 H        2.63603756388284   -0.76907367925259    1.15872001182448
 H        4.47779627377102   -0.22091140496189   -0.24238003946483
 H        3.43561512082453   -0.49215138966034   -1.66393264535390
 H        3.24975395353907    0.98259191289692   -0.69958061081551
36
 energy: -59.821552585678 gnorm: 0.010654101534 xtb: 6.4.1 (afa7bdf)
 C       -2.43848039711976   -4.04737255841616   -0.70153673363220
 C       -1.58998894292650   -3.38751038675893    0.36190659657845
 O       -1.82886578996470   -3.45294872389118    1.55452677619659
 H       -2.31564857280433   -3.56243077992522   -1.66445133881103
 H       -2.12483580321457   -5.08682613360456   -0.78571711726612
 H       -3.48174761103476   -4.03351718929838   -0.40895589969631
 N       -0.51779834433381   -2.73670650808483   -0.14112661565585
 C        0.51324744029395   -2.10130023026553    0.63794236809933
 C        1.45376596240102   -1.43381741476581   -0.37044650100619
 O        1.25556387181354   -1.50254764164229   -1.57127802430279
 C        1.24853328918943   -3.12370095290375    1.53812769992314
 N        3.37269204405065   -5.26727805541771   -0.59120699626567
 C        0.18680352027764   -6.11199061253686    0.75162130584299
 C        1.92168158642757   -4.18302678424491    0.73003155404332
 C        1.37234768849941   -5.46078998190114    0.40465376397301
 C        2.31000862547292   -6.10914551256644   -0.43716406887749
 C        3.13379992693204   -4.11372215754466    0.10386121660037
 C        0.88923096397954   -7.99264280777869   -0.64049301382499
 C       -0.01647351164260   -7.35892974102348    0.21175276539087
 C        2.07540792372187   -7.37261000269517   -0.96694741958226
 F       -1.16140769032837   -8.02375183373377    0.50642407428460
 H       -0.35841833364699   -2.66108008104315   -1.14287237602204
 H        0.07483792843770   -1.32898755749143    1.28659782463193
 H        0.64276215339640   -8.96828472712762   -1.02783664122330
 H        1.96846914201629   -2.60517999061884    2.17311662991682
 H        0.49144441480745   -3.57886789313091    2.17629508072174
 H        3.85837949123520   -3.32180742121033    0.10605752331369
 H        2.79547641775188   -7.84973615144498   -1.61402542466801
 H        4.19461305248759   -5.45972676859747   -1.13792291688439
 H       -0.54136373305088   -5.67416395840927    1.41282636267084
 C        3.46828409507155   -0.08491328379299   -0.64460555222223
 N        2.49882448293904   -0.78060952477564    0.17045161031632
 H        2.59402073693570   -0.71865316031287    1.17286375397585
 H        4.47374791679071   -0.24542722891926   -0.25341536506318
 H        3.39720344284263   -0.48361555254606   -1.65696218843632
 H        3.26188261229558    0.98861930842034   -0.67609271303948
36
 energy: -59.822207255531 gnorm: 0.012004786584 xtb: 6.4.1 (afa7bdf)
 C       -2.47035355317956   -4.00099782845524   -0.70145344281796
 C       -1.61493455515538   -3.34400571594292    0.35865056643664
 O       -1.86413204038812   -3.36696233556654    1.54271739383363
 H       -2.35417569521171   -3.50429100624813   -1.65831777394537
 H       -2.15593856799035   -5.03934776573615   -0.80312752141554
 H       -3.51120511849980   -3.98929169164722   -0.40198627021681
 N       -0.51441526001679   -2.74549665665971   -0.14612999557981
 C        0.51497898631723   -2.11337452799571    0.63602411072202
 C        1.46980127798501   -1.45962737184071   -0.36522175173968
 O        1.31218726936587   -1.57234685378303   -1.56767815805388
 C        1.24985480548018   -3.13832357699041    1.53741628949680
 N        3.37240052855146   -5.26290673138609   -0.61093979300343
 C        0.20044097400635   -6.12865649903030    0.74862151263520
 C        1.92392924045595   -4.19058260209620    0.72310171419359
 C        1.38027498725546   -5.47087999820459    0.39683933409243
 C        2.31716827147299   -6.11345014980726   -0.44865466262178
 C        3.13040572239727   -4.11250430392681    0.08806025055114
 C        0.91671684071264   -8.01589555446110   -0.62479091043941
 C        0.00649098843456   -7.38313459123200    0.22334466631465
 C        2.09185735585989   -7.38374155963363   -0.96683338057540
 F       -1.12850591204501   -8.05526182578126    0.53157856180759
 H       -0.33502107181309   -2.71532549075322   -1.14442148857605
 H        0.07335257162062   -1.34312034724176    1.28281226411407
 H        0.67996118865788   -9.00037043754028   -0.99699993450027
 H        1.96857272803037   -2.61799831211146    2.17197357880579
 H        0.49545970110259   -3.59597370288274    2.17592223969128
 H        3.84889869702425   -3.31515769639272    0.08612445210151
 H        2.81028637045436   -7.85853827213584   -1.61678831740331
 H        4.19004476861324   -5.44747500969025   -1.16618749271477
 H       -0.53654972899497   -5.68834516596347    1.39996869943724
 C        3.46182316522022   -0.08195066237832   -0.63270809312056
 N        2.48668739208482   -0.76743574442726    0.18243976755231
 H        2.54844644866936   -0.66963679125721    1.18388647433301
 H        4.47021847742410   -0.27236036350190   -0.26055559707609
 H        3.36302282957812   -0.46648028815725   -1.64776680037544
 H        3.27994991651998    0.99624743085869   -0.64292049194339
36
 energy: -59.822614260468 gnorm: 0.015926997514 xtb: 6.4.1 (afa7bdf)
 C       -2.50373471150308   -3.95769351271957   -0.69980598023243
 C       -1.63540856026357   -3.30463469179088    0.35321884092231
 O       -1.91774340139167   -3.26019165019221    1.53938048857676
 H       -2.39805416713040   -3.45451243659200   -1.65496092290455
 H       -2.19478058818678   -4.99639662432761   -0.81309286699492
 H       -3.54100997751849   -3.94100950051672   -0.38559576172115
 N       -0.50143575935820   -2.76700526382774   -0.15514027383797
 C        0.51997429436483   -2.12981322251464    0.63189559345375
 C        1.48781994504964   -1.48747328891988   -0.36143603017973
 O        1.37464671817449   -1.65007941435731   -1.56436277078247
 C        1.25466287653908   -3.15238128535582    1.53678924624597
 N        3.37029265298161   -5.25913785317717   -0.63408228868906
 C        0.21184442042518   -6.14279537957605    0.74507979001098
 C        1.92672364751879   -4.19890070498675    0.71512486435800
 C        1.38634889672491   -5.47985849098999    0.38790666549797
 C        2.32239552584955   -6.11673166796712   -0.46287485305388
 C        3.12678495349511   -4.11240869401221    0.06947354873318
 C        0.94343648512880   -8.03765569504164   -0.60987616195924
 C        0.02797701495143   -7.40513302242020    0.23400162756252
 C        2.10691050472829   -7.39373346667024   -0.96837981463029
 F       -1.09767580357147   -8.08468583212429    0.55599835232564
 H       -0.29229153863244   -2.79605652600541   -1.15184112323319
 H        0.06837243826888   -1.36096928241121    1.27265692409874
 H        0.71816786409293   -9.03099277816752   -0.96648594829490
 H        1.97553869141090   -2.62969436713384    2.16720354269845
 H        0.50210150041617   -3.61079962050734    2.17719839062172
 H        3.83950786433054   -3.30993701270145    0.06299813583204
 H        2.82459457555280   -7.86709247056243   -1.62021849853204
 H        4.18271559704529   -5.43544977210976   -1.19955317550546
 H       -0.53179881864984   -5.69768087934634    1.38833227413526
 C        3.45562338533197   -0.07383337405675   -0.61536259376230
 N        2.47174974268492   -0.75119004930332    0.19377306280030
 H        2.49510629018702   -0.61372353464025    1.19399803955002
 H        4.46451810297050   -0.29817573190642   -0.26167271714291
 H        3.33211220253015   -0.43618741116919   -1.63528241235529
 H        3.30200713545218    1.00901450810131   -0.59900519361187
36
 energy: -59.822945026361 gnorm: 0.009468879745 xtb: 6.4.1 (afa7bdf)
 C       -2.52111630364012   -3.94185153668775   -0.69586337960898
 C       -1.63669892209799   -3.28994599959494    0.34454534640404
 O       -1.91581123414568   -3.22611901336142    1.52807410695196
 H       -2.43600546829138   -3.43671180392087   -1.65294032922471
 H       -2.21338167034796   -4.97963866121153   -0.81679514761960
 H       -3.55268355303234   -3.92678901014517   -0.35786542924716
 N       -0.50005995463489   -2.77241301067314   -0.16363463933261
 C        0.52161937578416   -2.13472109106839    0.62433820374932
 C        1.49379746607172   -1.49226827792353   -0.36330713339642
 O        1.39741793931075   -1.66515584780473   -1.56017198498556
 C        1.25745566846017   -3.15437129695963    1.53032232882985
 N        3.36958877693190   -5.26217947064569   -0.63991474335024
 C        0.21351353426697   -6.15054857983354    0.74032787605311
 C        1.92531850717418   -4.20354933804438    0.70901108653752
 C        1.38577602333125   -5.48469552016872    0.38253948479463
 C        2.32388604370512   -6.12092376913083   -0.46709992532709
 C        3.12467552239850   -4.11595905663642    0.06301409279105
 C        0.95561301182690   -8.04995166077164   -0.60232623235551
 C        0.03474658659972   -7.41572880150800    0.23509597251867
 C        2.11484326034835   -7.40191087524581   -0.96425333764145
 F       -1.08987334338736   -8.09558840615246    0.55897498125800
 H       -0.28988118981538   -2.82058269898930   -1.15263611146210
 H        0.06349496867458   -1.36695508405491    1.26265962271157
 H        0.73785356049094   -9.04719750484912   -0.95138223630517
 H        1.98460019331071   -2.62919378967722    2.15232633436186
 H        0.50873026550396   -3.60860675718391    2.17870572103627
 H        3.83554852314965   -3.31194573930251    0.05678803707388
 H        2.83549847754821   -7.87698682643730   -1.61170721761302
 H        4.18110091246917   -5.43605676321163   -1.20670817262135
 H       -0.53220433358998   -5.70254214247500    1.37929205009383
 C        3.45637262841838   -0.06647623053996   -0.60347923286537
 N        2.46459573962279   -0.74549674518599    0.19342186240386
 H        2.47122875231707   -0.60221618066332    1.18826971845318
 H        4.46169189859714   -0.30915475597967   -0.25497827116116
 H        3.32933512695832   -0.40793543662674   -1.62892778755812
 H        3.31741320971244    1.01736768266515   -0.56771551434706
36
 energy: -59.823122856532 gnorm: 0.018105818839 xtb: 6.4.1 (afa7bdf)
 C       -2.55266618986370   -3.91102632441389   -0.68426108287113
 C       -1.65132007936215   -3.25477303977961    0.33982352831881
 O       -1.92280727311794   -3.16251447223879    1.51551470183385
 H       -2.49790510940996   -3.40098652334816   -1.64278360218543
 H       -2.23976444771099   -4.94545643918948   -0.81842839528029
 H       -3.57648910193265   -3.90548385974633   -0.31522493820405
 N       -0.49496326156452   -2.78477949732420   -0.17324288437637
 C        0.52690449487081   -2.14375811910995    0.61358698259113
 C        1.50743022839406   -1.50813665839733   -0.37014385803386
 O        1.45466468943556   -1.73642060023453   -1.57019152297532
 C        1.26161514156238   -3.16029608397469    1.52226207421713
 N        3.36944852239170   -5.26787649941616   -0.65063642319900
 C        0.21713536456427   -6.16415358324030    0.73256877020930
 C        1.92463377852248   -4.21291617299347    0.70008618124162
 C        1.38673293176491   -5.49426822083214    0.37433941850412
 C        2.32765553326559   -6.12912596444505   -0.47463437503043
 C        3.12258089527813   -4.12235300751460    0.05174325494919
 C        0.97353146449841   -8.06835379882124   -0.59536462089050
 C        0.04627185854591   -7.43317582514923    0.23496581082950
 C        2.12716765265307   -7.41459000679900   -0.96241637996261
 F       -1.07596581661451   -8.11606356798728    0.56225968688150
 H       -0.27059891348051   -2.87583260050278   -1.15556703734929
 H        0.05895004184653   -1.37502184023595    1.24462604390708
 H        0.76575705207693   -9.06989904694941   -0.93586467215405
 H        1.99702364449583   -2.63464499603288    2.13556756983326
 H        0.51718461660527   -3.60970914248289    2.17980538691510
 H        3.83029845191117   -3.31565360713978    0.04457641816383
 H        2.85191939492502   -7.89028675254625   -1.60546346684931
 H        4.17867218939250   -5.43707256502012   -1.22200182193026
 H       -0.52894024736651   -5.71531882969269    1.36929373266090
 C        3.45687421982748   -0.05145551442469   -0.58447799718118
 N        2.44712601630617   -0.72344346260717    0.19642189169307
 H        2.41568691765360   -0.54408514905761    1.19128633395948
 H        4.45494208847580   -0.32006789947094   -0.23853096388829
 H        3.32874816045905   -0.36894627913381   -1.61600785477739
 H        3.34046509070073    1.03294595025235   -0.52748588957026
36
 energy: -59.823296399230 gnorm: 0.009021649449 xtb: 6.4.1 (afa7bdf)
 C       -2.56179430278941   -3.90408019921870   -0.67879031529428
 C       -1.65808822942699   -3.24220685168303    0.33960059841576
 O       -1.93281978295578   -3.13245086252289    1.51600715388634
 H       -2.51657710860192   -3.39327966425382   -1.63735490774252
 H       -2.24568119229392   -4.93704692979391   -0.81594690285477
 H       -3.58291577335840   -3.90211413366232   -0.30284573944974
 N       -0.49147603007403   -2.79292263286339   -0.17890867690552
 C        0.52920483587933   -2.14790515452643    0.60646494327882
 C        1.51182895854484   -1.51314696787482   -0.37554178288506
 O        1.46202547930137   -1.73462885102713   -1.56820998181389
 C        1.26385209276534   -3.16179568943930    1.51696845454894
 N        3.37176251247972   -5.27271224997626   -0.65180837769214
 C        0.21766559115451   -6.16662918014970    0.73032638428835
 C        1.92627452908181   -4.21655952865105    0.69665783073309
 C        1.38840225322906   -5.49794199376882    0.37261328130600
 C        2.33028961781696   -6.13414183505989   -0.47460848107957
 C        3.12452179250836   -4.12598626781523    0.04838776721414
 C        0.97658041328291   -8.07336932010533   -0.59312437022059
 C        0.04855476468407   -7.43691907495166    0.23505386491418
 C        2.13071971296056   -7.42027883628108   -0.96055234016324
 F       -1.07375259439980   -8.12082102369785    0.56204898342785
 H       -0.25530537082653   -2.90635341812588   -1.16213942434931
 H        0.06025775307127   -1.37958832571038    1.23696434020240
 H        0.77010040774238   -9.07545841321508   -0.93214135618890
 H        2.00055001483358   -2.63501594141507    2.12758578994504
 H        0.52012628067268   -3.60891378186673    2.17692247544902
 H        3.83156840840463   -3.31865807399116    0.04013083144771
 H        2.85690024866931   -7.89629629404162   -1.60199981461453
 H        4.18022831049043   -5.44133981727385   -1.22473735400814
 H       -0.52763302417035   -5.71660895494245    1.36689099309215
 C        3.45545072638769   -0.04265134734625   -0.57660015071215
 N        2.44078948331302   -0.71855222543197    0.19433440200403
 H        2.40199776235466   -0.53969691844691    1.18521788452841
 H        4.45248222475835   -0.32525887025648   -0.23337393133410
 H        3.32542248561797   -0.34585935842220   -1.61401798665583
 H        3.34648674889223    1.04218898780858   -0.50347408471808
36
 energy: -59.823395779734 gnorm: 0.007169552930 xtb: 6.4.1 (afa7bdf)
 C       -2.56158316354103   -3.90736479750410   -0.67344469811115